TITLE = "Solution" 
VARIABLES = "x", "y", "sol" 
ZONE STRANDID=1, SOLUTIONTIME= 0.13999999999999996, I= 51, J =51, DATAPACKING=POINT 
-1.0,-1.0,0.49356948120997657
-0.96,-1.0,0.3559206355733812
-0.92,-1.0,0.19590798741917756
-0.88,-1.0,0.023585719916248797
-0.84,-1.0,-0.15021852511122802
-0.8,-1.0,-0.3145839877408764
-0.76,-1.0,-0.4591829814617892
-0.72,-1.0,-0.5749298197005824
-0.6799999999999999,-1.0,-0.654551702923619
-0.64,-1.0,-0.6930456953791926
-0.6,-1.0,-0.6879930779503182
-0.56,-1.0,-0.6397113251722795
-0.52,-1.0,-0.551234157139986
-0.48,-1.0,-0.42812091971716915
-0.43999999999999995,-1.0,-0.27810727038991906
-0.4,-1.0,-0.11061911845707627
-0.36,-1.0,0.06381963951708425
-0.31999999999999995,-1.0,0.2342483748281705
-0.28,-1.0,0.38995842324354346
-0.24,-1.0,0.5211659497597655
-0.19999999999999996,-1.0,0.6196267029382944
-0.16000000000000003,-1.0,0.6791540315436037
-0.12,-1.0,0.6960076145932207
-0.07999999999999996,-1.0,0.6691284794809956
-0.040000000000000036,-1.0,0.6002055411205739
0.0,-1.0,0.4935694812099764
0.040000000000000036,-1.0,0.355920635573381
0.08000000000000007,-1.0,0.1959079874191774
0.1200000000000001,-1.0,0.023585719916248735
0.15999999999999992,-1.0,-0.15021852511122802
0.19999999999999996,-1.0,-0.31458398774087637
0.24,-1.0,-0.45918298146178926
0.28,-1.0,-0.5749298197005825
0.32000000000000006,-1.0,-0.6545517029236189
0.3600000000000001,-1.0,-0.6930456953791925
0.40000000000000013,-1.0,-0.6879930779503182
0.43999999999999995,-1.0,-0.6397113251722794
0.48,-1.0,-0.5512341571399859
0.52,-1.0,-0.428120919717169
0.56,-1.0,-0.278107270389919
0.6000000000000001,-1.0,-0.11061911845707637
0.6400000000000001,-1.0,0.0638196395170841
0.6799999999999999,-1.0,0.23424837482817043
0.72,-1.0,0.38995842324354335
0.76,-1.0,0.5211659497597653
0.8,-1.0,0.6196267029382944
0.8400000000000001,-1.0,0.6791540315436035
0.8800000000000001,-1.0,0.6960076145932206
0.9199999999999999,-1.0,0.6691284794809956
0.96,-1.0,0.600205541120574
1.0,-1.0,0.49356948120997657

-1.0,-0.96,0.3559206355733812
-0.96,-0.96,0.2453703267296408
-0.92,-0.96,0.11940249784853971
-0.88,-0.96,-0.014067829104054576
-0.84,-0.96,-0.14665422261618477
-0.8,-0.96,-0.2700257919648377
-0.76,-0.96,-0.37643064771894463
-0.72,-0.96,-0.45918298146178926
-0.6799999999999999,-0.96,-0.5130831597225144
-0.64,-0.96,-0.5347444360700091
-0.6,-0.96,-0.522805752846759
-0.56,-0.96,-0.4780172614270862
-0.52,-0.96,-0.40319318744743815
-0.48,-0.96,-0.30303500265965033
-0.43999999999999995,-0.96,-0.18383601416997633
-0.4,-0.96,-0.053085932808436584
-0.36,-0.96,0.08099973294786113
-0.31999999999999995,-0.96,0.20999588758686508
-0.28,-0.96,0.3257972282979357
-0.24,-0.96,0.4211275309566566
-0.19999999999999996,-0.96,0.4899968420466523
-0.16000000000000003,-0.96,0.5280778494685292
-0.12,-0.96,0.5329777834738226
-0.07999999999999996,-0.96,0.5043887631882835
-0.040000000000000036,-0.96,0.44410714189951345
0.0,-0.96,0.35592063557338116
0.040000000000000036,-0.96,0.24537032672964065
0.08000000000000007,-0.96,0.11940249784853957
0.1200000000000001,-0.96,-0.014067829104054597
0.15999999999999992,-0.96,-0.14665422261618474
0.19999999999999996,-0.96,-0.2700257919648378
0.24,-0.96,-0.3764306477189446
0.28,-0.96,-0.45918298146178915
0.32000000000000006,-0.96,-0.5130831597225142
0.3600000000000001,-0.96,-0.5347444360700091
0.40000000000000013,-0.96,-0.5228057528467589
0.43999999999999995,-0.96,-0.4780172614270863
0.48,-0.96,-0.403193187447438
0.52,-0.96,-0.30303500265965017
0.56,-0.96,-0.1838360141699763
0.6000000000000001,-0.96,-0.05308593280843667
0.6400000000000001,-0.96,0.080999732947861
0.6799999999999999,-0.96,0.20999588758686497
0.72,-0.96,0.3257972282979356
0.76,-0.96,0.4211275309566566
0.8,-0.96,0.4899968420466522
0.8400000000000001,-0.96,0.5280778494685292
0.8800000000000001,-0.96,0.5329777834738226
0.9199999999999999,-0.96,0.5043887631882835
0.96,-0.96,0.4441071418995135
1.0,-0.96,0.35592063557338127

-1.0,-0.92,0.19590798741917756
-0.96,-0.92,0.11940249784853972
-0.92,-0.92,0.03539451020640867
-0.88,-0.92,-0.05083744468389399
-0.84,-0.92,-0.13387509595766453
-0.8,-0.92,-0.20850088259425298
-0.76,-0.92,-0.2700257919648378
-0.72,-0.92,-0.3145839877408765
-0.6799999999999999,-0.92,-0.33937571460817945
-0.64,-0.92,-0.3428432171900807
-0.6,-0.92,-0.324768619546777
-0.56,-0.92,-0.28628761512191747
-0.52,-0.92,-0.22981810694675042
-0.48,-0.92,-0.1589082819002452
-0.43999999999999995,-0.92,-0.07801366507816779
-0.4,-0.92,0.007782837234961166
-0.36,-0.92,0.0930903152613444
-0.31999999999999995,-0.92,0.1725485864176264
-0.28,-0.92,0.24116499529997826
-0.24,-0.92,0.29462812058482246
-0.19999999999999996,-0.92,0.3295786774868914
-0.16000000000000003,-0.92,0.3438205939768713
-0.12,-0.92,0.3364589980635919
-0.07999999999999996,-0.92,0.3079564458923403
-0.040000000000000036,-0.92,0.26010385764109045
0.0,-0.92,0.1959079874191775
0.040000000000000036,-0.92,0.11940249784853958
0.08000000000000007,-0.92,0.03539451020640859
0.1200000000000001,-0.92,-0.050837444683893965
0.15999999999999992,-0.92,-0.1338750959576645
0.19999999999999996,-0.92,-0.20850088259425298
0.24,-0.92,-0.2700257919648378
0.28,-0.92,-0.31458398774087637
0.32000000000000006,-0.92,-0.33937571460817934
0.3600000000000001,-0.92,-0.3428432171900807
0.40000000000000013,-0.92,-0.32476861954677705
0.43999999999999995,-0.92,-0.28628761512191736
0.48,-0.92,-0.22981810694675028
0.52,-0.92,-0.15890828190024509
0.56,-0.92,-0.0780136650781678
0.6000000000000001,-0.92,0.0077828372349610896
0.6400000000000001,-0.92,0.09309031526134433
0.6799999999999999,-0.92,0.17254858641762635
0.72,-0.92,0.24116499529997826
0.76,-0.92,0.29462812058482246
0.8,-0.92,0.32957867748689135
0.8400000000000001,-0.92,0.3438205939768713
0.8800000000000001,-0.92,0.3364589980635919
0.9199999999999999,-0.92,0.3079564458923403
0.96,-0.92,0.2601038576410905
1.0,-0.92,0.19590798741917756

-1.0,-0.88,0.023585719916248804
-0.96,-0.88,-0.014067829104054574
-0.92,-0.88,-0.050837444683893986
-0.88,-0.88,-0.08441275664720138
-0.84,-0.88,-0.11268410466196228
-0.8,-0.88,-0.13387509595766445
-0.76,-0.88,-0.14665422261618472
-0.72,-0.88,-0.15021852511122785
-0.6799999999999999,-0.88,-0.14434404520844268
-0.64,-0.88,-0.12939989808494712
-0.6,-0.88,-0.10632507946523892
-0.56,-0.88,-0.07656946506644093
-0.52,-0.88,-0.042002709574724406
-0.48,-0.88,-0.0047967693652677945
-0.43999999999999995,-0.88,0.03271056950469234
-0.4,-0.88,0.06816258299161324
-0.36,-0.88,0.09933169070472649
-0.31999999999999995,-0.88,0.12425942297445758
-0.28,-0.88,0.14137947870451306
-0.24,-0.88,0.1496161418302129
-0.19999999999999996,-0.88,0.1484518725150414
-0.16000000000000003,-0.88,0.13795982608195384
-0.12,-0.88,0.11879925639538863
-0.07999999999999996,-0.88,0.09217409251639869
-0.040000000000000036,-0.88,0.059757291412004074
0.0,-0.88,0.023585719916248728
0.040000000000000036,-0.88,-0.014067829104054658
0.08000000000000007,-0.88,-0.050837444683894
0.1200000000000001,-0.88,-0.08441275664720133
0.15999999999999992,-0.88,-0.11268410466196224
0.19999999999999996,-0.88,-0.13387509595766445
0.24,-0.88,-0.14665422261618466
0.28,-0.88,-0.15021852511122777
0.32000000000000006,-0.88,-0.14434404520844268
0.3600000000000001,-0.88,-0.12939989808494717
0.40000000000000013,-0.88,-0.10632507946523892
0.43999999999999995,-0.88,-0.07656946506644086
0.48,-0.88,-0.04200270957472434
0.52,-0.88,-0.004796769365267753
0.56,-0.88,0.0327105695046923
0.6000000000000001,-0.88,0.06816258299161318
0.6400000000000001,-0.88,0.09933169070472644
0.6799999999999999,-0.88,0.1242594229744576
0.72,-0.88,0.14137947870451306
0.76,-0.88,0.1496161418302129
0.8,-0.88,0.1484518725150414
0.8400000000000001,-0.88,0.13795982608195384
0.8800000000000001,-0.88,0.11879925639538864
0.9199999999999999,-0.88,0.09217409251639869
0.96,-0.88,0.05975729141200405
1.0,-0.88,0.023585719916248804

-1.0,-0.84,-0.15021852511122796
-0.96,-0.84,-0.14665422261618474
-0.92,-0.84,-0.13387509595766456
-0.88,-0.84,-0.11268410466196227
-0.84,-0.84,-0.08441275664720124
-0.8,-0.84,-0.050837444683893805
-0.76,-0.84,-0.014067829104054394
-0.72,-0.84,0.023585719916249137
-0.6799999999999999,-0.84,0.059757291412004615
-0.64,-0.84,0.09217409251639924
-0.6,-0.84,0.11879925639538914
-0.56,-0.84,0.13795982608195428
-0.52,-0.84,0.14845187251504166
-0.48,-0.84,0.14961614183021305
-0.43999999999999995,-0.84,0.14137947870451315
-0.4,-0.84,0.12425942297445759
-0.36,-0.84,0.09933169070472639
-0.31999999999999995,-0.84,0.06816258299161307
-0.28,-0.84,0.032710569504692075
-0.24,-0.84,-0.004796769365268128
-0.19999999999999996,-0.84,-0.042002709574724795
-0.16000000000000003,-0.84,-0.07656946506644141
-0.12,-0.84,-0.10632507946523945
-0.07999999999999996,-0.84,-0.12939989808494765
-0.040000000000000036,-0.84,-0.14434404520844307
0.0,-0.84,-0.15021852511122802
0.040000000000000036,-0.84,-0.14665422261618477
0.08000000000000007,-0.84,-0.13387509595766445
0.1200000000000001,-0.84,-0.11268410466196217
0.15999999999999992,-0.84,-0.08441275664720121
0.19999999999999996,-0.84,-0.05083744468389381
0.24,-0.84,-0.014067829104054339
0.28,-0.84,0.023585719916249165
0.32000000000000006,-0.84,0.059757291412004546
0.3600000000000001,-0.84,0.09217409251639917
0.40000000000000013,-0.84,0.1187992563953891
0.43999999999999995,-0.84,0.13795982608195428
0.48,-0.84,0.14845187251504172
0.52,-0.84,0.14961614183021305
0.56,-0.84,0.14137947870451306
0.6000000000000001,-0.84,0.12425942297445755
0.6400000000000001,-0.84,0.0993316907047264
0.6799999999999999,-0.84,0.0681625829916131
0.72,-0.84,0.03271056950469213
0.76,-0.84,-0.0047967693652681
0.8,-0.84,-0.04200270957472478
0.8400000000000001,-0.84,-0.07656946506644141
0.8800000000000001,-0.84,-0.10632507946523945
0.9199999999999999,-0.84,-0.12939989808494767
0.96,-0.84,-0.14434404520844307
1.0,-0.84,-0.15021852511122796

-1.0,-0.8,-0.3145839877408764
-0.96,-0.8,-0.27002579196483784
-0.92,-0.8,-0.208500882594253
-0.88,-0.8,-0.13387509595766445
-0.84,-0.8,-0.0508374446838938
-0.8,-0.8,0.03539451020640888
-0.76,-0.8,0.11940249784853996
-0.72,-0.8,0.19590798741917803
-0.6799999999999999,-0.8,0.260103857641091
-0.64,-0.8,0.30795644589234084
-0.6,-0.8,0.3364589980635925
-0.56,-0.8,0.3438205939768716
-0.52,-0.8,0.3295786774868915
-0.48,-0.8,0.2946281205848225
-0.43999999999999995,-0.8,0.24116499529997829
-0.4,-0.8,0.17254858641762627
-0.36,-0.8,0.0930903152613442
-0.31999999999999995,-0.8,0.007782837234960878
-0.28,-0.8,-0.07801366507816813
-0.24,-0.8,-0.15890828190024553
-0.19999999999999996,-0.8,-0.22981810694675087
-0.16000000000000003,-0.8,-0.28628761512191797
-0.12,-0.8,-0.3247686195467776
-0.07999999999999996,-0.8,-0.34284321719008115
-0.040000000000000036,-0.8,-0.3393757146081795
0.0,-0.8,-0.3145839877408764
0.040000000000000036,-0.8,-0.27002579196483767
0.08000000000000007,-0.8,-0.20850088259425287
0.1200000000000001,-0.8,-0.13387509595766436
0.15999999999999992,-0.8,-0.05083744468389378
0.19999999999999996,-0.8,0.03539451020640889
0.24,-0.8,0.11940249784854
0.28,-0.8,0.19590798741917798
0.32000000000000006,-0.8,0.260103857641091
0.3600000000000001,-0.8,0.30795644589234067
0.40000000000000013,-0.8,0.33645899806359236
0.43999999999999995,-0.8,0.3438205939768716
0.48,-0.8,0.32957867748689157
0.52,-0.8,0.2946281205848224
0.56,-0.8,0.24116499529997812
0.6000000000000001,-0.8,0.17254858641762624
0.6400000000000001,-0.8,0.09309031526134424
0.6799999999999999,-0.8,0.007782837234960968
0.72,-0.8,-0.07801366507816805
0.76,-0.8,-0.15890828190024553
0.8,-0.8,-0.2298181069467508
0.8400000000000001,-0.8,-0.28628761512191797
0.8800000000000001,-0.8,-0.32476861954677766
0.9199999999999999,-0.8,-0.34284321719008115
0.96,-0.8,-0.3393757146081795
1.0,-0.8,-0.3145839877408764

-1.0,-0.76,-0.45918298146178926
-0.96,-0.76,-0.37643064771894463
-0.92,-0.76,-0.27002579196483784
-0.88,-0.76,-0.14665422261618472
-0.84,-0.76,-0.01406782910405437
-0.8,-0.76,0.11940249784853997
-0.76,-0.76,0.24537032672964115
-0.72,-0.76,0.3559206355733817
-0.6799999999999999,-0.76,0.44410714189951417
-0.64,-0.76,0.5043887631882843
-0.6,-0.76,0.5329777834738233
-0.56,-0.76,0.5280778494685293
-0.52,-0.76,0.48999684204665234
-0.48,-0.76,0.4211275309566567
-0.43999999999999995,-0.76,0.32579722829793567
-0.4,-0.76,0.2099958875868649
-0.36,-0.76,0.08099973294786086
-0.31999999999999995,-0.76,-0.053085932808436966
-0.28,-0.76,-0.1838360141699767
-0.24,-0.76,-0.3030350026596508
-0.19999999999999996,-0.76,-0.40319318744743865
-0.16000000000000003,-0.76,-0.478017261427087
-0.12,-0.76,-0.5228057528467598
-0.07999999999999996,-0.76,-0.5347444360700094
-0.040000000000000036,-0.76,-0.5130831597225145
0.0,-0.76,-0.4591829814617892
0.040000000000000036,-0.76,-0.3764306477189446
0.08000000000000007,-0.76,-0.27002579196483767
0.1200000000000001,-0.76,-0.14665422261618452
0.15999999999999992,-0.76,-0.014067829104054328
0.19999999999999996,-0.76,0.11940249784853997
0.24,-0.76,0.24537032672964115
0.28,-0.76,0.3559206355733817
0.32000000000000006,-0.76,0.44410714189951395
0.3600000000000001,-0.76,0.5043887631882841
0.40000000000000013,-0.76,0.5329777834738232
0.43999999999999995,-0.76,0.5280778494685295
0.48,-0.76,0.48999684204665217
0.52,-0.76,0.4211275309566565
0.56,-0.76,0.3257972282979355
0.6000000000000001,-0.76,0.20999588758686494
0.6400000000000001,-0.76,0.08099973294786093
0.6799999999999999,-0.76,-0.053085932808436834
0.72,-0.76,-0.18383601416997664
0.76,-0.76,-0.3030350026596507
0.8,-0.76,-0.4031931874474387
0.8400000000000001,-0.76,-0.478017261427087
0.8800000000000001,-0.76,-0.5228057528467597
0.9199999999999999,-0.76,-0.5347444360700094
0.96,-0.76,-0.5130831597225144
1.0,-0.76,-0.45918298146178926

-1.0,-0.72,-0.5749298197005824
-0.96,-0.72,-0.4591829814617893
-0.92,-0.72,-0.31458398774087654
-0.88,-0.72,-0.15021852511122782
-0.84,-0.72,0.02358571991624913
-0.8,-0.72,0.19590798741917795
-0.76,-0.72,0.35592063557338177
-0.72,-0.72,0.4935694812099773
-0.6799999999999999,-0.72,0.6002055411205751
-0.64,-0.72,0.6691284794809967
-0.6,-0.72,0.6960076145932211
-0.56,-0.72,0.6791540315436039
-0.52,-0.72,0.6196267029382946
-0.48,-0.72,0.5211659497597655
-0.43999999999999995,-0.72,0.3899584232435434
-0.4,-0.72,0.23424837482817026
-0.36,-0.72,0.0638196395170838
-0.31999999999999995,-0.72,-0.11061911845707681
-0.28,-0.72,-0.2781072703899197
-0.24,-0.72,-0.4281209197171698
-0.19999999999999996,-0.72,-0.5512341571399869
-0.16000000000000003,-0.72,-0.6397113251722804
-0.12,-0.72,-0.6879930779503189
-0.07999999999999996,-0.72,-0.693045695379193
-0.040000000000000036,-0.72,-0.6545517029236191
0.0,-0.72,-0.5749298197005825
0.040000000000000036,-0.72,-0.45918298146178926
0.08000000000000007,-0.72,-0.3145839877408762
0.1200000000000001,-0.72,-0.15021852511122766
0.15999999999999992,-0.72,0.023585719916249158
0.19999999999999996,-0.72,0.19590798741917792
0.24,-0.72,0.35592063557338177
0.28,-0.72,0.4935694812099772
0.32000000000000006,-0.72,0.6002055411205749
0.3600000000000001,-0.72,0.6691284794809965
0.40000000000000013,-0.72,0.6960076145932212
0.43999999999999995,-0.72,0.6791540315436038
0.48,-0.72,0.6196267029382945
0.52,-0.72,0.5211659497597653
0.56,-0.72,0.3899584232435433
0.6000000000000001,-0.72,0.2342483748281703
0.6400000000000001,-0.72,0.06381963951708393
0.6799999999999999,-0.72,-0.11061911845707667
0.72,-0.72,-0.2781072703899196
0.76,-0.72,-0.42812091971716987
0.8,-0.72,-0.551234157139987
0.8400000000000001,-0.72,-0.6397113251722805
0.8800000000000001,-0.72,-0.6879930779503189
0.9199999999999999,-0.72,-0.6930456953791929
0.96,-0.72,-0.6545517029236191
1.0,-0.72,-0.5749298197005824

-1.0,-0.6799999999999999,-0.654551702923619
-0.96,-0.6799999999999999,-0.5130831597225144
-0.92,-0.6799999999999999,-0.33937571460817945
-0.88,-0.6799999999999999,-0.1443440452084427
-0.84,-0.6799999999999999,0.05975729141200456
-0.8,-0.6799999999999999,0.260103857641091
-0.76,-0.6799999999999999,0.44410714189951406
-0.72,-0.6799999999999999,0.6002055411205751
-0.6799999999999999,-0.6799999999999999,0.7185908187914599
-0.64,-0.6799999999999999,0.7918243925255121
-0.6,-0.6799999999999999,0.8153047275507773
-0.56,-0.6799999999999999,0.7875564680629862
-0.52,-0.6799999999999999,0.7103231392567169
-0.48,-0.6799999999999999,0.5884575952251813
-0.43999999999999995,-0.6799999999999999,0.4296170962900001
-0.4,-0.6799999999999999,0.24378217517376233
-0.36,-0.6799999999999999,0.04262952342323263
-0.31999999999999995,-0.6799999999999999,-0.161201698064399
-0.28,-0.6799999999999999,-0.35490402400426996
-0.24,-0.6799999999999999,-0.5263064248702557
-0.19999999999999996,-0.6799999999999999,-0.6646390574420116
-0.16000000000000003,-0.6799999999999999,-0.761209973663219
-0.12,-0.6799999999999999,-0.8099512677047137
-0.07999999999999996,-0.6799999999999999,-0.8078003448039284
-0.040000000000000036,-0.6799999999999999,-0.7548923553572607
0.0,-0.6799999999999999,-0.6545517029236191
0.040000000000000036,-0.6799999999999999,-0.5130831597225142
0.08000000000000007,-0.6799999999999999,-0.3393757146081791
0.1200000000000001,-0.6799999999999999,-0.14434404520844252
0.15999999999999992,-0.6799999999999999,0.05975729141200456
0.19999999999999996,-0.6799999999999999,0.260103857641091
0.24,-0.6799999999999999,0.44410714189951406
0.28,-0.6799999999999999,0.600205541120575
0.32000000000000006,-0.6799999999999999,0.7185908187914597
0.3600000000000001,-0.6799999999999999,0.791824392525512
0.40000000000000013,-0.6799999999999999,0.8153047275507771
0.43999999999999995,-0.6799999999999999,0.7875564680629862
0.48,-0.6799999999999999,0.7103231392567168
0.52,-0.6799999999999999,0.588457595225181
0.56,-0.6799999999999999,0.42961709629000006
0.6000000000000001,-0.6799999999999999,0.24378217517376236
0.6400000000000001,-0.6799999999999999,0.042629523423232785
0.6799999999999999,-0.6799999999999999,-0.16120169806439882
0.72,-0.6799999999999999,-0.35490402400426996
0.76,-0.6799999999999999,-0.5263064248702557
0.8,-0.6799999999999999,-0.6646390574420116
0.8400000000000001,-0.6799999999999999,-0.7612099736632189
0.8800000000000001,-0.6799999999999999,-0.8099512677047136
0.9199999999999999,-0.6799999999999999,-0.8078003448039285
0.96,-0.6799999999999999,-0.7548923553572608
1.0,-0.6799999999999999,-0.654551702923619

-1.0,-0.64,-0.6930456953791925
-0.96,-0.64,-0.5347444360700091
-0.92,-0.64,-0.34284321719008076
-0.88,-0.64,-0.12939989808494717
-0.84,-0.64,0.09217409251639919
-0.8,-0.64,0.3079564458923407
-0.76,-0.64,0.5043887631882842
-0.72,-0.64,0.6691284794809967
-0.6799999999999999,-0.64,0.7918243925255121
-0.64,-0.64,0.8647670668612405
-0.6,-0.64,0.8833732459952771
-0.56,-0.64,0.84647383526389
-0.52,-0.64,0.7563873603498728
-0.48,-0.64,0.6187742857869516
-0.43999999999999995,-0.64,0.4422813471554002
-0.4,-0.64,0.23799824488506255
-0.36,-0.64,0.01876083759227958
-0.31999999999999995,-0.64,-0.2016553821239606
-0.28,-0.64,-0.409400852544735
-0.24,-0.64,-0.5914221617291116
-0.19999999999999996,-0.64,-0.7362822413934879
-0.16000000000000003,-0.64,-0.8348789999744448
-0.12,-0.64,-0.8810172405168283
-0.07999999999999996,-0.64,-0.8717979276827814
-0.040000000000000036,-0.64,-0.8078003448039283
0.0,-0.64,-0.6930456953791924
0.040000000000000036,-0.64,-0.5347444360700089
0.08000000000000007,-0.64,-0.34284321719008043
0.1200000000000001,-0.64,-0.12939989808494703
0.15999999999999992,-0.64,0.0921740925163992
0.19999999999999996,-0.64,0.3079564458923407
0.24,-0.64,0.5043887631882841
0.28,-0.64,0.6691284794809965
0.32000000000000006,-0.64,0.791824392525512
0.3600000000000001,-0.64,0.8647670668612403
0.40000000000000013,-0.64,0.883373245995277
0.43999999999999995,-0.64,0.84647383526389
0.48,-0.64,0.7563873603498728
0.52,-0.64,0.6187742857869514
0.56,-0.64,0.44228134715540013
0.6000000000000001,-0.64,0.2379982448850626
0.6400000000000001,-0.64,0.018760837592279738
0.6799999999999999,-0.64,-0.20165538212396042
0.72,-0.64,-0.409400852544735
0.76,-0.64,-0.5914221617291116
0.8,-0.64,-0.7362822413934876
0.8400000000000001,-0.64,-0.8348789999744448
0.8800000000000001,-0.64,-0.8810172405168284
0.9199999999999999,-0.64,-0.8717979276827814
0.96,-0.64,-0.8078003448039283
1.0,-0.64,-0.6930456953791926

-1.0,-0.6,-0.6879930779503182
-0.96,-0.6,-0.522805752846759
-0.92,-0.6,-0.3247686195467771
-0.88,-0.6,-0.10632507946523896
-0.84,-0.6,0.11879925639538907
-0.8,-0.6,0.33645899806359236
-0.76,-0.6,0.5329777834738233
-0.72,-0.6,0.6960076145932211
-0.6799999999999999,-0.6,0.8153047275507773
-0.64,-0.6,0.8833732459952771
-0.6,-0.6,0.895936174574353
-0.56,-0.6,0.8522041382821633
-0.52,-0.6,0.7549249817941246
-0.48,-0.6,0.6102111122800916
-0.43999999999999995,-0.6,0.4271554343820141
-0.4,-0.6,0.21726000957391758
-0.36,-0.6,-0.006286660662130595
-0.31999999999999995,-0.6,-0.22943831688805658
-0.28,-0.6,-0.4381735198488021
-0.24,-0.6,-0.619376669067967
-0.19999999999999996,-0.6,-0.7616621042615448
-0.16000000000000003,-0.6,-0.8560895082470971
-0.12,-0.6,-0.8967256599525125
-0.07999999999999996,-0.6,-0.881017240516828
-0.040000000000000036,-0.6,-0.8099512677047129
0.0,-0.6,-0.687993077950318
0.040000000000000036,-0.6,-0.5228057528467589
0.08000000000000007,-0.6,-0.3247686195467769
0.1200000000000001,-0.6,-0.10632507946523882
0.15999999999999992,-0.6,0.1187992563953891
0.19999999999999996,-0.6,0.3364589980635923
0.24,-0.6,0.5329777834738232
0.28,-0.6,0.696007614593221
0.32000000000000006,-0.6,0.815304727550777
0.3600000000000001,-0.6,0.8833732459952769
0.40000000000000013,-0.6,0.895936174574353
0.43999999999999995,-0.6,0.8522041382821633
0.48,-0.6,0.7549249817941245
0.52,-0.6,0.6102111122800916
0.56,-0.6,0.427155434382014
0.6000000000000001,-0.6,0.2172600095739177
0.6400000000000001,-0.6,-0.006286660662130428
0.6799999999999999,-0.6,-0.22943831688805646
0.72,-0.6,-0.4381735198488021
0.76,-0.6,-0.619376669067967
0.8,-0.6,-0.7616621042615447
0.8400000000000001,-0.6,-0.8560895082470971
0.8800000000000001,-0.6,-0.8967256599525126
0.9199999999999999,-0.6,-0.881017240516828
0.96,-0.6,-0.8099512677047129
1.0,-0.6,-0.6879930779503183

-1.0,-0.56,-0.6397113251722795
-0.96,-0.56,-0.4780172614270864
-0.92,-0.56,-0.2862876151219175
-0.88,-0.56,-0.07656946506644094
-0.84,-0.56,0.13795982608195428
-0.8,-0.56,0.3438205939768716
-0.76,-0.56,0.5280778494685293
-0.72,-0.56,0.6791540315436039
-0.6799999999999999,-0.56,0.7875564680629863
-0.64,-0.56,0.8464738352638901
-0.6,-0.56,0.8522041382821633
-0.56,-0.56,0.8043873211045877
-0.52,-0.56,0.7060278902123823
-0.48,-0.56,0.5633061303891873
-0.43999999999999995,-0.56,0.3851897746986093
-0.4,-0.56,0.18287052883482108
-0.36,-0.56,-0.030939144906418525
-0.31999999999999995,-0.56,-0.24280479838697228
-0.28,-0.56,-0.4394141334112884
-0.24,-0.56,-0.6084134623812354
-0.19999999999999996,-0.56,-0.7391839359215764
-0.16000000000000003,-0.56,-0.8235087642396126
-0.12,-0.56,-0.856089508247097
-0.07999999999999996,-0.56,-0.834878999974444
-0.040000000000000036,-0.56,-0.761209973663218
0.0,-0.56,-0.6397113251722794
0.040000000000000036,-0.56,-0.4780172614270862
0.08000000000000007,-0.56,-0.28628761512191725
0.1200000000000001,-0.56,-0.0765694650664408
0.15999999999999992,-0.56,0.13795982608195426
0.19999999999999996,-0.56,0.34382059397687165
0.24,-0.56,0.5280778494685294
0.28,-0.56,0.6791540315436037
0.32000000000000006,-0.56,0.787556468062986
0.3600000000000001,-0.56,0.84647383526389
0.40000000000000013,-0.56,0.8522041382821632
0.43999999999999995,-0.56,0.8043873211045875
0.48,-0.56,0.7060278902123822
0.52,-0.56,0.5633061303891871
0.56,-0.56,0.38518977469860927
0.6000000000000001,-0.56,0.1828705288348211
0.6400000000000001,-0.56,-0.030939144906418373
0.6799999999999999,-0.56,-0.2428047983869721
0.72,-0.56,-0.4394141334112884
0.76,-0.56,-0.6084134623812353
0.8,-0.56,-0.7391839359215765
0.8400000000000001,-0.56,-0.8235087642396127
0.8800000000000001,-0.56,-0.856089508247097
0.9199999999999999,-0.56,-0.834878999974444
0.96,-0.56,-0.761209973663218
1.0,-0.56,-0.6397113251722796

-1.0,-0.52,-0.5512341571399861
-0.96,-0.52,-0.40319318744743815
-0.92,-0.52,-0.22981810694675042
-0.88,-0.52,-0.04200270957472438
-0.84,-0.52,0.1484518725150417
-0.8,-0.52,0.3295786774868915
-0.76,-0.52,0.48999684204665234
-0.72,-0.52,0.6196267029382947
-0.6799999999999999,-0.52,0.710323139256717
-0.64,-0.52,0.7563873603498729
-0.6,-0.52,0.7549249817941245
-0.56,-0.52,0.7060278902123823
-0.52,-0.52,0.6127684696996505
-0.48,-0.52,0.48100655263090003
-0.43999999999999995,-0.52,0.3190212248419944
-0.4,-0.52,0.1369906202182733
-0.36,-0.52,-0.05364760889002061
-0.31999999999999995,-0.52,-0.2409149614296505
-0.28,-0.52,-0.4130447409194055
-0.24,-0.52,-0.5592214002648979
-0.19999999999999996,-0.52,-0.6702601223593033
-0.16000000000000003,-0.52,-0.7391839359215763
-0.12,-0.52,-0.7616621042615442
-0.07999999999999996,-0.52,-0.7362822413934869
-0.040000000000000036,-0.52,-0.6646390574420105
0.0,-0.52,-0.5512341571399861
0.040000000000000036,-0.52,-0.40319318744743793
0.08000000000000007,-0.52,-0.22981810694675014
0.1200000000000001,-0.52,-0.0420027095747243
0.15999999999999992,-0.52,0.14845187251504172
0.19999999999999996,-0.52,0.3295786774868915
0.24,-0.52,0.4899968420466523
0.28,-0.52,0.6196267029382944
0.32000000000000006,-0.52,0.7103231392567168
0.3600000000000001,-0.52,0.7563873603498726
0.40000000000000013,-0.52,0.7549249817941246
0.43999999999999995,-0.52,0.7060278902123823
0.48,-0.52,0.6127684696996502
0.52,-0.52,0.4810065526309
0.56,-0.52,0.3190212248419943
0.6000000000000001,-0.52,0.13699062021827338
0.6400000000000001,-0.52,-0.05364760889002046
0.6799999999999999,-0.52,-0.2409149614296504
0.72,-0.52,-0.4130447409194055
0.76,-0.52,-0.559221400264898
0.8,-0.52,-0.6702601223593034
0.8400000000000001,-0.52,-0.7391839359215764
0.8800000000000001,-0.52,-0.7616621042615442
0.9199999999999999,-0.52,-0.7362822413934869
0.96,-0.52,-0.6646390574420105
1.0,-0.52,-0.5512341571399861

-1.0,-0.48,-0.4281209197171692
-0.96,-0.48,-0.30303500265965033
-0.92,-0.48,-0.15890828190024517
-0.88,-0.48,-0.004796769365267758
-0.84,-0.48,0.1496161418302131
-0.8,-0.48,0.2946281205848225
-0.76,-0.48,0.42112753095665667
-0.72,-0.48,0.5211659497597655
-0.6799999999999999,-0.48,0.5884575952251814
-0.64,-0.48,0.6187742857869515
-0.6,-0.48,0.6102111122800917
-0.56,-0.48,0.5633061303891873
-0.52,-0.48,0.48100655263090003
-0.48,-0.48,0.3684835641524576
-0.43999999999999995,-0.48,0.23280739815056406
-0.4,-0.48,0.0825030871171528
-0.36,-0.48,-0.07298519630495878
-0.31999999999999995,-0.48,-0.2238875514224541
-0.28,-0.48,-0.36072222828326017
-0.24,-0.48,-0.4748914008974736
-0.19999999999999996,-0.48,-0.5592214002648979
-0.16000000000000003,-0.48,-0.6084134623812352
-0.12,-0.48,-0.6193766690679663
-0.07999999999999996,-0.48,-0.5914221617291108
-0.040000000000000036,-0.48,-0.526306424870255
0.0,-0.48,-0.4281209197171691
0.040000000000000036,-0.48,-0.30303500265965005
0.08000000000000007,-0.48,-0.15890828190024497
0.1200000000000001,-0.48,-0.004796769365267723
0.15999999999999992,-0.48,0.14961614183021307
0.19999999999999996,-0.48,0.29462812058482246
0.24,-0.48,0.42112753095665656
0.28,-0.48,0.5211659497597654
0.32000000000000006,-0.48,0.5884575952251812
0.3600000000000001,-0.48,0.6187742857869515
0.40000000000000013,-0.48,0.6102111122800917
0.43999999999999995,-0.48,0.5633061303891871
0.48,-0.48,0.4810065526309
0.52,-0.48,0.3684835641524574
0.56,-0.48,0.23280739815056406
0.6000000000000001,-0.48,0.08250308711715287
0.6400000000000001,-0.48,-0.07298519630495866
0.6799999999999999,-0.48,-0.223887551422454
0.72,-0.48,-0.36072222828326017
0.76,-0.48,-0.47489140089747367
0.8,-0.48,-0.559221400264898
0.8400000000000001,-0.48,-0.6084134623812352
0.8800000000000001,-0.48,-0.6193766690679663
0.9199999999999999,-0.48,-0.5914221617291108
0.96,-0.48,-0.5263064248702549
1.0,-0.48,-0.4281209197171692

-1.0,-0.43999999999999995,-0.2781072703899191
-0.96,-0.43999999999999995,-0.1838360141699763
-0.92,-0.43999999999999995,-0.07801366507816775
-0.88,-0.43999999999999995,0.03271056950469235
-0.84,-0.43999999999999995,0.14137947870451315
-0.8,-0.43999999999999995,0.24116499529997823
-0.76,-0.43999999999999995,0.32579722829793567
-0.72,-0.43999999999999995,0.3899584232435434
-0.6799999999999999,-0.43999999999999995,0.4296170962900001
-0.64,-0.43999999999999995,0.44228134715540024
-0.6,-0.43999999999999995,0.4271554343820141
-0.56,-0.43999999999999995,0.3851897746986094
-0.52,-0.43999999999999995,0.3190212248419944
-0.48,-0.43999999999999995,0.23280739815056406
-0.43999999999999995,-0.43999999999999995,0.131965426427616
-0.4,-0.43999999999999995,0.02283158162733204
-0.36,-0.43999999999999995,-0.08773685541528076
-0.31999999999999995,-0.43999999999999995,-0.19279246315856857
-0.28,-0.43999999999999995,-0.28573421140052213
-0.24,-0.43999999999999995,-0.36072222828326006
-0.19999999999999996,-0.43999999999999995,-0.4130447409194054
-0.16000000000000003,-0.43999999999999995,-0.43941413341128804
-0.12,-0.43999999999999995,-0.4381735198488015
-0.07999999999999996,-0.43999999999999995,-0.40940085254473435
-0.040000000000000036,-0.43999999999999995,-0.35490402400426935
0.0,-0.43999999999999995,-0.278107270389919
0.040000000000000036,-0.43999999999999995,-0.18383601416997616
0.08000000000000007,-0.43999999999999995,-0.07801366507816765
0.1200000000000001,-0.43999999999999995,0.03271056950469235
0.15999999999999992,-0.43999999999999995,0.14137947870451315
0.19999999999999996,-0.43999999999999995,0.24116499529997823
0.24,-0.43999999999999995,0.3257972282979356
0.28,-0.43999999999999995,0.38995842324354335
0.32000000000000006,-0.43999999999999995,0.42961709629000006
0.3600000000000001,-0.43999999999999995,0.44228134715540024
0.40000000000000013,-0.43999999999999995,0.4271554343820141
0.43999999999999995,-0.43999999999999995,0.3851897746986093
0.48,-0.43999999999999995,0.3190212248419943
0.52,-0.43999999999999995,0.232807398150564
0.56,-0.43999999999999995,0.13196542642761602
0.6000000000000001,-0.43999999999999995,0.022831581627332134
0.6400000000000001,-0.43999999999999995,-0.08773685541528063
0.6799999999999999,-0.43999999999999995,-0.19279246315856852
0.72,-0.43999999999999995,-0.28573421140052213
0.76,-0.43999999999999995,-0.3607222282832601
0.8,-0.43999999999999995,-0.4130447409194054