# vtk DataFile Version 3.0
Solution data
ASCII
DATASET STRUCTURED_GRID
DIMENSIONS 51 51 1
POINTS 2601 float
-1.0 -1.0 0.0
-0.96 -1.0 0.0
-0.92 -1.0 0.0
-0.88 -1.0 0.0
-0.84 -1.0 0.0
-0.8 -1.0 0.0
-0.76 -1.0 0.0
-0.72 -1.0 0.0
-0.6799999999999999 -1.0 0.0
-0.64 -1.0 0.0
-0.6 -1.0 0.0
-0.56 -1.0 0.0
-0.52 -1.0 0.0
-0.48 -1.0 0.0
-0.43999999999999995 -1.0 0.0
-0.4 -1.0 0.0
-0.36 -1.0 0.0
-0.31999999999999995 -1.0 0.0
-0.28 -1.0 0.0
-0.24 -1.0 0.0
-0.19999999999999996 -1.0 0.0
-0.16000000000000003 -1.0 0.0
-0.12 -1.0 0.0
-0.07999999999999996 -1.0 0.0
-0.040000000000000036 -1.0 0.0
0.0 -1.0 0.0
0.040000000000000036 -1.0 0.0
0.08000000000000007 -1.0 0.0
0.1200000000000001 -1.0 0.0
0.15999999999999992 -1.0 0.0
0.19999999999999996 -1.0 0.0
0.24 -1.0 0.0
0.28 -1.0 0.0
0.32000000000000006 -1.0 0.0
0.3600000000000001 -1.0 0.0
0.40000000000000013 -1.0 0.0
0.43999999999999995 -1.0 0.0
0.48 -1.0 0.0
0.52 -1.0 0.0
0.56 -1.0 0.0
0.6000000000000001 -1.0 0.0
0.6400000000000001 -1.0 0.0
0.6799999999999999 -1.0 0.0
0.72 -1.0 0.0
0.76 -1.0 0.0
0.8 -1.0 0.0
0.8400000000000001 -1.0 0.0
0.8800000000000001 -1.0 0.0
0.9199999999999999 -1.0 0.0
0.96 -1.0 0.0
1.0 -1.0 0.0
-1.0 -0.96 0.0
-0.96 -0.96 0.0
-0.92 -0.96 0.0
-0.88 -0.96 0.0
-0.84 -0.96 0.0
-0.8 -0.96 0.0
-0.76 -0.96 0.0
-0.72 -0.96 0.0
-0.6799999999999999 -0.96 0.0
-0.64 -0.96 0.0
-0.6 -0.96 0.0
-0.56 -0.96 0.0
-0.52 -0.96 0.0
-0.48 -0.96 0.0
-0.43999999999999995 -0.96 0.0
-0.4 -0.96 0.0
-0.36 -0.96 0.0
-0.31999999999999995 -0.96 0.0
-0.28 -0.96 0.0
-0.24 -0.96 0.0
-0.19999999999999996 -0.96 0.0
-0.16000000000000003 -0.96 0.0
-0.12 -0.96 0.0
-0.07999999999999996 -0.96 0.0
-0.040000000000000036 -0.96 0.0
0.0 -0.96 0.0
0.040000000000000036 -0.96 0.0
0.08000000000000007 -0.96 0.0
0.1200000000000001 -0.96 0.0
0.15999999999999992 -0.96 0.0
0.19999999999999996 -0.96 0.0
0.24 -0.96 0.0
0.28 -0.96 0.0
0.32000000000000006 -0.96 0.0
0.3600000000000001 -0.96 0.0
0.40000000000000013 -0.96 0.0
0.43999999999999995 -0.96 0.0
0.48 -0.96 0.0
0.52 -0.96 0.0
0.56 -0.96 0.0
0.6000000000000001 -0.96 0.0
0.6400000000000001 -0.96 0.0
0.6799999999999999 -0.96 0.0
0.72 -0.96 0.0
0.76 -0.96 0.0
0.8 -0.96 0.0
0.8400000000000001 -0.96 0.0
0.8800000000000001 -0.96 0.0
0.9199999999999999 -0.96 0.0
0.96 -0.96 0.0
1.0 -0.96 0.0
-1.0 -0.92 0.0
-0.96 -0.92 0.0
-0.92 -0.92 0.0
-0.88 -0.92 0.0
-0.84 -0.92 0.0
-0.8 -0.92 0.0
-0.76 -0.92 0.0
-0.72 -0.92 0.0
-0.6799999999999999 -0.92 0.0
-0.64 -0.92 0.0
-0.6 -0.92 0.0
-0.56 -0.92 0.0
-0.52 -0.92 0.0
-0.48 -0.92 0.0
-0.43999999999999995 -0.92 0.0
-0.4 -0.92 0.0
-0.36 -0.92 0.0
-0.31999999999999995 -0.92 0.0
-0.28 -0.92 0.0
-0.24 -0.92 0.0
-0.19999999999999996 -0.92 0.0
-0.16000000000000003 -0.92 0.0
-0.12 -0.92 0.0
-0.07999999999999996 -0.92 0.0
-0.040000000000000036 -0.92 0.0
0.0 -0.92 0.0
0.040000000000000036 -0.92 0.0
0.08000000000000007 -0.92 0.0
0.1200000000000001 -0.92 0.0
0.15999999999999992 -0.92 0.0
0.19999999999999996 -0.92 0.0
0.24 -0.92 0.0
0.28 -0.92 0.0
0.32000000000000006 -0.92 0.0
0.3600000000000001 -0.92 0.0
0.40000000000000013 -0.92 0.0
0.43999999999999995 -0.92 0.0
0.48 -0.92 0.0
0.52 -0.92 0.0
0.56 -0.92 0.0
0.6000000000000001 -0.92 0.0
0.6400000000000001 -0.92 0.0
0.6799999999999999 -0.92 0.0
0.72 -0.92 0.0
0.76 -0.92 0.0
0.8 -0.92 0.0
0.8400000000000001 -0.92 0.0
0.8800000000000001 -0.92 0.0
0.9199999999999999 -0.92 0.0
0.96 -0.92 0.0
1.0 -0.92 0.0
-1.0 -0.88 0.0
-0.96 -0.88 0.0
-0.92 -0.88 0.0
-0.88 -0.88 0.0
-0.84 -0.88 0.0
-0.8 -0.88 0.0
-0.76 -0.88 0.0
-0.72 -0.88 0.0
-0.6799999999999999 -0.88 0.0
-0.64 -0.88 0.0
-0.6 -0.88 0.0
-0.56 -0.88 0.0
-0.52 -0.88 0.0
-0.48 -0.88 0.0
-0.43999999999999995 -0.88 0.0
-0.4 -0.88 0.0
-0.36 -0.88 0.0
-0.31999999999999995 -0.88 0.0
-0.28 -0.88 0.0
-0.24 -0.88 0.0
-0.19999999999999996 -0.88 0.0
-0.16000000000000003 -0.88 0.0
-0.12 -0.88 0.0
-0.07999999999999996 -0.88 0.0
-0.040000000000000036 -0.88 0.0
0.0 -0.88 0.0
0.040000000000000036 -0.88 0.0
0.08000000000000007 -0.88 0.0
0.1200000000000001 -0.88 0.0
0.15999999999999992 -0.88 0.0
0.19999999999999996 -0.88 0.0
0.24 -0.88 0.0
0.28 -0.88 0.0
0.32000000000000006 -0.88 0.0
0.3600000000000001 -0.88 0.0
0.40000000000000013 -0.88 0.0
0.43999999999999995 -0.88 0.0
0.48 -0.88 0.0
0.52 -0.88 0.0
0.56 -0.88 0.0
0.6000000000000001 -0.88 0.0
0.6400000000000001 -0.88 0.0
0.6799999999999999 -0.88 0.0
0.72 -0.88 0.0
0.76 -0.88 0.0
0.8 -0.88 0.0
0.8400000000000001 -0.88 0.0
0.8800000000000001 -0.88 0.0
0.9199999999999999 -0.88 0.0
0.96 -0.88 0.0
1.0 -0.88 0.0
-1.0 -0.84 0.0
-0.96 -0.84 0.0
-0.92 -0.84 0.0
-0.88 -0.84 0.0
-0.84 -0.84 0.0
-0.8 -0.84 0.0
-0.76 -0.84 0.0
-0.72 -0.84 0.0
-0.6799999999999999 -0.84 0.0
-0.64 -0.84 0.0
-0.6 -0.84 0.0
-0.56 -0.84 0.0
-0.52 -0.84 0.0
-0.48 -0.84 0.0
-0.43999999999999995 -0.84 0.0
-0.4 -0.84 0.0
-0.36 -0.84 0.0
-0.31999999999999995 -0.84 0.0
-0.28 -0.84 0.0
-0.24 -0.84 0.0
-0.19999999999999996 -0.84 0.0
-0.16000000000000003 -0.84 0.0
-0.12 -0.84 0.0
-0.07999999999999996 -0.84 0.0
-0.040000000000000036 -0.84 0.0
0.0 -0.84 0.0
0.040000000000000036 -0.84 0.0
0.08000000000000007 -0.84 0.0
0.1200000000000001 -0.84 0.0
0.15999999999999992 -0.84 0.0
0.19999999999999996 -0.84 0.0
0.24 -0.84 0.0
0.28 -0.84 0.0
0.32000000000000006 -0.84 0.0
0.3600000000000001 -0.84 0.0
0.40000000000000013 -0.84 0.0
0.43999999999999995 -0.84 0.0
0.48 -0.84 0.0
0.52 -0.84 0.0
0.56 -0.84 0.0
0.6000000000000001 -0.84 0.0
0.6400000000000001 -0.84 0.0
0.6799999999999999 -0.84 0.0
0.72 -0.84 0.0
0.76 -0.84 0.0
0.8 -0.84 0.0
0.8400000000000001 -0.84 0.0
0.8800000000000001 -0.84 0.0
0.9199999999999999 -0.84 0.0
0.96 -0.84 0.0
1.0 -0.84 0.0
-1.0 -0.8 0.0
-0.96 -0.8 0.0
-0.92 -0.8 0.0
-0.88 -0.8 0.0
-0.84 -0.8 0.0
-0.8 -0.8 0.0
-0.76 -0.8 0.0
-0.72 -0.8 0.0
-0.6799999999999999 -0.8 0.0
-0.64 -0.8 0.0
-0.6 -0.8 0.0
-0.56 -0.8 0.0
-0.52 -0.8 0.0
-0.48 -0.8 0.0
-0.43999999999999995 -0.8 0.0
-0.4 -0.8 0.0
-0.36 -0.8 0.0
-0.31999999999999995 -0.8 0.0
-0.28 -0.8 0.0
-0.24 -0.8 0.0
-0.19999999999999996 -0.8 0.0
-0.16000000000000003 -0.8 0.0
-0.12 -0.8 0.0
-0.07999999999999996 -0.8 0.0
-0.040000000000000036 -0.8 0.0
0.0 -0.8 0.0
0.040000000000000036 -0.8 0.0
0.08000000000000007 -0.8 0.0
0.1200000000000001 -0.8 0.0
0.15999999999999992 -0.8 0.0
0.19999999999999996 -0.8 0.0
0.24 -0.8 0.0
0.28 -0.8 0.0
0.32000000000000006 -0.8 0.0
0.3600000000000001 -0.8 0.0
0.40000000000000013 -0.8 0.0
0.43999999999999995 -0.8 0.0
0.48 -0.8 0.0
0.52 -0.8 0.0
0.56 -0.8 0.0
0.6000000000000001 -0.8 0.0
0.6400000000000001 -0.8 0.0
0.6799999999999999 -0.8 0.0
0.72 -0.8 0.0
0.76 -0.8 0.0
0.8 -0.8 0.0
0.8400000000000001 -0.8 0.0
0.8800000000000001 -0.8 0.0
0.9199999999999999 -0.8 0.0
0.96 -0.8 0.0
1.0 -0.8 0.0
-1.0 -0.76 0.0
-0.96 -0.76 0.0
-0.92 -0.76 0.0
-0.88 -0.76 0.0
-0.84 -0.76 0.0
-0.8 -0.76 0.0
-0.76 -0.76 0.0
-0.72 -0.76 0.0
-0.6799999999999999 -0.76 0.0
-0.64 -0.76 0.0
-0.6 -0.76 0.0
-0.56 -0.76 0.0
-0.52 -0.76 0.0
-0.48 -0.76 0.0
-0.43999999999999995 -0.76 0.0
-0.4 -0.76 0.0
-0.36 -0.76 0.0
-0.31999999999999995 -0.76 0.0
-0.28 -0.76 0.0
-0.24 -0.76 0.0
-0.19999999999999996 -0.76 0.0
-0.16000000000000003 -0.76 0.0
-0.12 -0.76 0.0
-0.07999999999999996 -0.76 0.0
-0.040000000000000036 -0.76 0.0
0.0 -0.76 0.0
0.040000000000000036 -0.76 0.0
0.08000000000000007 -0.76 0.0
0.1200000000000001 -0.76 0.0
0.15999999999999992 -0.76 0.0
0.19999999999999996 -0.76 0.0
0.24 -0.76 0.0
0.28 -0.76 0.0
0.32000000000000006 -0.76 0.0
0.3600000000000001 -0.76 0.0
0.40000000000000013 -0.76 0.0
0.43999999999999995 -0.76 0.0
0.48 -0.76 0.0
0.52 -0.76 0.0
0.56 -0.76 0.0
0.6000000000000001 -0.76 0.0
0.6400000000000001 -0.76 0.0
0.6799999999999999 -0.76 0.0
0.72 -0.76 0.0
0.76 -0.76 0.0
0.8 -0.76 0.0
0.8400000000000001 -0.76 0.0
0.8800000000000001 -0.76 0.0
0.9199999999999999 -0.76 0.0
0.96 -0.76 0.0
1.0 -0.76 0.0
-1.0 -0.72 0.0
-0.96 -0.72 0.0
-0.92 -0.72 0.0
-0.88 -0.72 0.0
-0.84 -0.72 0.0
-0.8 -0.72 0.0
-0.76 -0.72 0.0
-0.72 -0.72 0.0
-0.6799999999999999 -0.72 0.0
-0.64 -0.72 0.0
-0.6 -0.72 0.0
-0.56 -0.72 0.0
-0.52 -0.72 0.0
-0.48 -0.72 0.0
-0.43999999999999995 -0.72 0.0
-0.4 -0.72 0.0
-0.36 -0.72 0.0
-0.31999999999999995 -0.72 0.0
-0.28 -0.72 0.0
-0.24 -0.72 0.0
-0.19999999999999996 -0.72 0.0
-0.16000000000000003 -0.72 0.0
-0.12 -0.72 0.0
-0.07999999999999996 -0.72 0.0
-0.040000000000000036 -0.72 0.0
0.0 -0.72 0.0
0.040000000000000036 -0.72 0.0
0.08000000000000007 -0.72 0.0
0.1200000000000001 -0.72 0.0
0.15999999999999992 -0.72 0.0
0.19999999999999996 -0.72 0.0
0.24 -0.72 0.0
0.28 -0.72 0.0
0.32000000000000006 -0.72 0.0
0.3600000000000001 -0.72 0.0
0.40000000000000013 -0.72 0.0
0.43999999999999995 -0.72 0.0
0.48 -0.72 0.0
0.52 -0.72 0.0
0.56 -0.72 0.0
0.6000000000000001 -0.72 0.0
0.6400000000000001 -0.72 0.0
0.6799999999999999 -0.72 0.0
0.72 -0.72 0.0
0.76 -0.72 0.0
0.8 -0.72 0.0
0.8400000000000001 -0.72 0.0
0.8800000000000001 -0.72 0.0
0.9199999999999999 -0.72 0.0
0.96 -0.72 0.0
1.0 -0.72 0.0
-1.0 -0.6799999999999999 0.0
-0.96 -0.6799999999999999 0.0
-0.92 -0.6799999999999999 0.0
-0.88 -0.6799999999999999 0.0
-0.84 -0.6799999999999999 0.0
-0.8 -0.6799999999999999 0.0
-0.76 -0.6799999999999999 0.0
-0.72 -0.6799999999999999 0.0
-0.6799999999999999 -0.6799999999999999 0.0
-0.64 -0.6799999999999999 0.0
-0.6 -0.6799999999999999 0.0
-0.56 -0.6799999999999999 0.0
-0.52 -0.6799999999999999 0.0
-0.48 -0.6799999999999999 0.0
-0.43999999999999995 -0.6799999999999999 0.0
-0.4 -0.6799999999999999 0.0
-0.36 -0.6799999999999999 0.0
-0.31999999999999995 -0.6799999999999999 0.0
-0.28 -0.6799999999999999 0.0
-0.24 -0.6799999999999999 0.0
-0.19999999999999996 -0.6799999999999999 0.0
-0.16000000000000003 -0.6799999999999999 0.0
-0.12 -0.6799999999999999 0.0
-0.07999999999999996 -0.6799999999999999 0.0
-0.040000000000000036 -0.6799999999999999 0.0
0.0 -0.6799999999999999 0.0
0.040000000000000036 -0.6799999999999999 0.0
0.08000000000000007 -0.6799999999999999 0.0
0.1200000000000001 -0.6799999999999999 0.0
0.15999999999999992 -0.6799999999999999 0.0
0.19999999999999996 -0.6799999999999999 0.0
0.24 -0.6799999999999999 0.0
[...]
POINT_DATA 2601
SCALARS solution float 1
LOOKUP_TABLE default
5.99903913064743e-32
6.091145485935131e-17
1.1799561899322857e-16
1.6766568442823062e-16
2.0680069827935363e-16
2.329416636978185e-16
2.444460476866375e-16
2.4059098748962845e-16
2.2161871071688896e-16
1.8872131529320357e-16
1.439658655611993e-16
9.016451102656849e-17
3.069778866226257e-17
-3.0697788662262633e-17
-9.016451102656856e-17
-1.4396586556119935e-16
-1.8872131529320355e-16
-2.2161871071688906e-16
-2.405909874896284e-16
-2.444460476866375e-16
-2.3294166369781847e-16
-2.0680069827935353e-16
-1.6766568442823052e-16
-1.179956189932285e-16
-6.091145485935123e-17
0.0
6.091145485935123e-17
1.1799561899322866e-16
1.6766568442823064e-16
2.0680069827935346e-16
2.3294166369781847e-16
2.444460476866375e-16
2.405909874896284e-16
2.2161871071688898e-16
1.8872131529320347e-16
1.4396586556119918e-16
9.016451102656856e-17
3.0697788662262633e-17
-3.069778866226257e-17
-9.016451102656849e-17
-1.439658655611994e-16
-1.8872131529320357e-16
-2.2161871071688896e-16
-2.4059098748962845e-16
-2.444460476866375e-16
-2.329416636978185e-16
-2.068006982793535e-16
-1.6766568442823044e-16
-1.1799561899322876e-16
-6.091145485935131e-17
-5.99903913064743e-32
6.091145485935131e-17
0.061846659978068486
0.11980726685361008
0.17023994253243394
0.20997581652323263
0.23651813772484218
0.24819915448033658
0.24428490554719356
0.22502133758148302
0.19161885140493784
0.14617624806978116
0.0915488534697655
0.031169107713113296
-0.031169107713113358
-0.09154885346976555
-0.14617624806978122
-0.1916188514049378
-0.2250213375814831
-0.24428490554719354
-0.24819915448033658
-0.23651813772484215
-0.20997581652323252
-0.17023994253243385
-0.11980726685361
-0.0618466599780684
0.0
0.0618466599780684
0.11980726685361018
0.17023994253243396
0.20997581652323244
0.23651813772484215
0.24819915448033658
0.24428490554719354
0.22502133758148304
0.19161885140493776
0.14617624806978102
0.09154885346976555
0.031169107713113358
-0.031169107713113296
-0.0915488534697655
-0.14617624806978124
-0.19161885140493784
-0.22502133758148302
-0.24428490554719356
-0.24819915448033658
-0.23651813772484218
-0.2099758165232325
-0.17023994253243377
-0.11980726685361028
-0.061846659978068486
-6.091145485935131e-17
1.1799561899322857e-16
0.11980726685361008
0.23208660251050173
0.32978308337684203
0.40675808025727533
0.45817497100356813
0.48080304327203466
0.47322049206181865
0.43590375695213035
0.3711975856512635
0.28316770487470255
0.17734535578289426
0.06037974575665202
-0.060379745756652135
-0.17734535578289434
-0.28316770487470266
-0.37119758565126343
-0.4359037569521305
-0.4732204920618186
-0.48080304327203466
-0.4581749710035681
-0.40675808025727517
-0.32978308337684187
-0.2320866025105016
-0.11980726685360991
0.0
0.11980726685360991
0.23208660251050192
0.3297830833768421
0.406758080257275
0.4581749710035681
0.48080304327203466
0.4732204920618186
0.4359037569521304
0.37119758565126326
0.2831677048747023
0.17734535578289434
0.060379745756652135
-0.06037974575665202
-0.17734535578289426
-0.2831677048747027
-0.3711975856512635
-0.43590375695213035
-0.47322049206181865
-0.48080304327203466
-0.45817497100356813
-0.4067580802572751
-0.3297830833768417
-0.23208660251050212
-0.11980726685361008
-1.1799561899322857e-16
1.6766568442823062e-16
0.17023994253243394
0.32978308337684203
0.4686047402353437
0.5779822378571784
0.6510429858044684
0.6831963085850509
0.6724218946769723
0.6193967401315995
0.527452610421896
0.4023666933643767
0.25199859716158973
0.08579650231312892
-0.08579650231312909
-0.25199859716158984
-0.40236669336437686
-0.5274526104218958
-0.6193967401315997
-0.6724218946769722
-0.6831963085850509
-0.6510429858044684
-0.5779822378571781
-0.4686047402353435
-0.3297830833768418
-0.1702399425324337
0.0
0.1702399425324337
0.32978308337684226
0.46860474023534376
0.5779822378571778
0.6510429858044684
0.6831963085850509
0.6724218946769722
0.6193967401315996
0.5274526104218956
0.4023666933643763
0.25199859716158984
0.08579650231312909
-0.08579650231312892
-0.25199859716158973
-0.4023666933643769
-0.527452610421896
-0.6193967401315995
-0.6724218946769723
-0.6831963085850509
-0.6510429858044684
-0.5779822378571781
-0.4686047402353432
-0.32978308337684253
-0.17023994253243394
-1.6766568442823062e-16
2.0680069827935363e-16
0.20997581652323263
0.40675808025727533
0.5779822378571784
0.7128896457825371
0.8030035754386609
0.8426618372094059
0.8293725566548319
0.7639707481467375
0.650565847844713
0.4962835027087826
0.31081783989461187
0.10582234909180863
-0.10582234909180883
-0.31081783989461204
-0.49628350270878274
-0.6505658478447129
-0.7639707481467377
-0.8293725566548318
-0.8426618372094059
-0.8030035754386609
-0.7128896457825367
-0.5779822378571782
-0.40675808025727506
-0.20997581652323236
0.0
0.20997581652323236
0.40675808025727567
0.5779822378571785
0.7128896457825364
0.8030035754386609
0.8426618372094059
0.8293725566548318
0.7639707481467376
0.6505658478447127
0.4962835027087821
0.31081783989461204
0.10582234909180883
-0.10582234909180863
-0.31081783989461187
-0.49628350270878285
-0.650565847844713
-0.7639707481467375
-0.8293725566548319
-0.8426618372094059
-0.8030035754386609
-0.7128896457825366
-0.5779822378571778
-0.406758080257276
-0.20997581652323263
-2.0680069827935363e-16
2.329416636978185e-16
0.23651813772484218
0.45817497100356813
0.6510429858044684
0.8030035754386609
0.9045084971874738
0.9491798235084413
0.9342106906791708
0.8605416643679445
0.7328016404336242
0.5590169943749473
0.3501072546390019
0.11919898848967406
-0.11919898848967429
-0.3501072546390021
-0.5590169943749476
-0.7328016404336241
-0.8605416643679449
-0.9342106906791707
-0.9491798235084413
-0.9045084971874737
-0.8030035754386605
-0.6510429858044681
-0.45817497100356785
-0.23651813772484184
0.0
0.23651813772484184
0.4581749710035685
0.6510429858044685
0.8030035754386602
0.9045084971874737
0.9491798235084413
0.9342106906791707
0.8605416643679447
0.7328016404336237
0.5590169943749468
0.3501072546390021
0.11919898848967429
-0.11919898848967406
-0.3501072546390019
-0.5590169943749477
-0.7328016404336242
-0.8605416643679445
-0.9342106906791708
-0.9491798235084413
-0.9045084971874738
-0.8030035754386604
-0.6510429858044678
-0.4581749710035689
-0.23651813772484218
-2.329416636978185e-16
2.444460476866375e-16
0.24819915448033658
0.48080304327203466
0.6831963085850509
0.8426618372094059
0.9491798235084413
0.9960573506572389
0.9803489312215545
0.9030415829660573
0.7689928108981796
0.586625392363843
0.3673981429700104
0.12508591705751904
-0.12508591705751929
-0.3673981429700106
-0.5866253923638433
-0.7689928108981795
-0.9030415829660576
-0.9803489312215544
-0.9960573506572389
-0.9491798235084412
-0.8426618372094055
-0.6831963085850505
-0.4808030432720343
-0.24819915448033625
0.0
0.24819915448033625
0.48080304327203505
0.683196308585051
0.8426618372094051
0.9491798235084412
0.9960573506572389
0.9803489312215544
0.9030415829660574
0.7689928108981792
0.5866253923638425
0.3673981429700106
0.12508591705751929
-0.12508591705751904
-0.3673981429700104
-0.5866253923638434
-0.7689928108981796
-0.9030415829660573
-0.9803489312215545
-0.9960573506572389
-0.9491798235084413
-0.8426618372094054
-0.6831963085850502
-0.48080304327203544
-0.24819915448033658
-2.444460476866375e-16
2.4059098748962845e-16
0.24428490554719356
0.47322049206181865
0.6724218946769723
0.8293725566548319
0.9342106906791708
0.9803489312215545
0.9648882429441258
0.8888000777517892
0.7568653348962768
0.577373959493242
0.36160405478236096
0.12311323742281707
-0.12311323742281731
-0.3616040547823612
-0.5773739594932422
-0.7568653348962767
-0.8888000777517895
-0.9648882429441257
-0.9803489312215545
-0.9342106906791707
-0.8293725566548314
-0.672421894676972
-0.4732204920618183
-0.24428490554719326
0.0
0.24428490554719326
0.47322049206181904
0.6724218946769724
0.8293725566548311
0.9342106906791707
0.9803489312215545
0.9648882429441257
0.8888000777517893
0.7568653348962764
0.5773739594932414
0.3616040547823612
0.12311323742281731
-0.12311323742281707
-0.36160405478236096
-0.5773739594932423
-0.7568653348962768
-0.8888000777517892
-0.9648882429441258
-0.9803489312215545
-0.9342106906791708
-0.8293725566548313
-0.6724218946769717
-0.4732204920618194
-0.24428490554719356
-2.4059098748962845e-16
2.2161871071688896e-16
0.22502133758148302
0.43590375695213035
0.6193967401315995
0.7639707481467375
0.8605416643679445
0.9030415829660573
0.8888000777517892
0.8187119948743445
0.6971812263468519
0.5318439973147939
0.3330890539460493
0.11340490030202462
-0.11340490030202484
-0.33308905394604954
-0.5318439973147941
-0.6971812263468518
-0.8187119948743449
-0.888800077751789
-0.9030415829660573
-0.8605416643679444
-0.763970748146737
-0.6193967401315993
-0.4359037569521301
-0.2250213375814827
0.0
0.2250213375814827
0.43590375695213074
0.6193967401315996
0.7639707481467368
0.8605416643679444
0.9030415829660573
0.888800077751789
0.8187119948743447
0.6971812263468514
0.5318439973147934
0.33308905394604954
0.11340490030202484
-0.11340490030202462
-0.3330890539460493
-0.5318439973147943
-0.6971812263468519
-0.8187119948743445
-0.8888000777517892
-0.9030415829660573
-0.8605416643679445
-0.7639707481467369
-0.619396740131599
-0.43590375695213107
-0.22502133758148302
-2.2161871071688896e-16
1.8872131529320357e-16
0.19161885140493784
0.3711975856512635
0.527452610421896
0.650565847844713
0.7328016404336242
0.7689928108981796
0.7568653348962768
0.6971812263468519
0.5936906572928625
0.45289632079965886
0.2836448428344584
0.0965709162212075
-0.0965709162212077
-0.28364484283445857
-0.452896320799659
-0.5936906572928624
-0.6971812263468521
-0.7568653348962767
-0.7689928108981796
-0.7328016404336241
-0.6505658478447127
-0.5274526104218956
-0.3711975856512632
-0.1916188514049376
0.0
0.1916188514049376
0.37119758565126376
0.527452610421896
0.6505658478447125
0.7328016404336241
0.7689928108981796
0.7568653348962767
0.697181226346852
0.5936906572928622
0.45289632079965847
0.28364484283445857
0.0965709162212077
-0.0965709162212075
-0.2836448428344584
-0.45289632079965914
-0.5936906572928625
-0.6971812263468519
-0.7568653348962768
-0.7689928108981796
-0.7328016404336242
-0.6505658478447126
-0.5274526104218954
-0.3711975856512641
-0.19161885140493784
-1.8872131529320357e-16
1.439658655611993e-16
0.14617624806978116
0.28316770487470255
0.4023666933643767
0.4962835027087826
0.5590169943749473
0.586625392363843
0.577373959493242
0.5318439973147939
0.45289632079965886
0.34549150281252616
0.2163781830748174
0.07366902631122604
-0.0736690263112262
-0.21637818307481754
-0.3454915028125263
-0.4528963207996588
-0.5318439973147941
-0.577373959493242
-0.586625392363843
-0.5590169943749473
-0.4962835027087823
-0.40236669336437647
-0.2831677048747024
-0.14617624806978097
0.0
0.14617624806978097
0.2831677048747028
0.40236669336437675
0.49628350270878213
0.5590169943749473
0.586625392363843
0.577373959493242
0.5318439973147939
0.45289632079965864
0.34549150281252583
0.21637818307481754
0.0736690263112262
-0.07366902631122604
-0.2163781830748174
-0.3454915028125264
-0.45289632079965886
-0.5318439973147939
-0.577373959493242
-0.586625392363843
-0.5590169943749473
-0.49628350270878224
-0.4023666933643763
-0.28316770487470305
-0.14617624806978116
-1.439658655611993e-16
9.016451102656849e-17
0.0915488534697655
0.17734535578289426
0.25199859716158973
0.31081783989461187
0.3501072546390019
0.3673981429700104
0.36160405478236096
0.3330890539460493
0.2836448428344584
0.2163781830748174
0.1355156862892945
0.04613824054238382
-0.04613824054238392
-0.13551568628929458
-0.2163781830748175
-0.28364484283445834
-0.33308905394604943
-0.36160405478236096
-0.3673981429700104
-0.3501072546390019
-0.3108178398946117
-0.2519985971615896
-0.17734535578289412
-0.09154885346976538
0.0
0.09154885346976538
0.1773453557828944
0.25199859716158973
0.3108178398946116
0.3501072546390019
0.3673981429700104
0.36160405478236096
0.3330890539460494
0.28364484283445823
0.2163781830748172
0.13551568628929458
0.04613824054238392
-0.04613824054238382
-0.1355156862892945
-0.21637818307481754
-0.2836448428344584
-0.3330890539460493
-0.36160405478236096
-0.3673981429700104
-0.3501072546390019
-0.31081783989461165
-0.25199859716158945
-0.17734535578289454
-0.0915488534697655
-9.016451102656849e-17
3.069778866226257e-17
0.031169107713113296
0.06037974575665202
0.08579650231312892
0.10582234909180863
0.11919898848967406
0.12508591705751904
0.12311323742281707
0.11340490030202462
0.0965709162212075
0.07366902631122604
0.04613824054238382
0.01570841943568445
-0.015708419435684483
-0.04613824054238385
-0.07366902631122607
-0.09657091622120749
-0.11340490030202466
-0.12311323742281706
-0.12508591705751904
-0.11919898848967404
-0.10582234909180857
-0.08579650231312888
-0.060379745756651976
-0.031169107713113254
0.0
0.031169107713113254
0.060379745756652066
0.08579650231312894
0.10582234909180853
0.11919898848967404
0.12508591705751904
0.12311323742281706
0.11340490030202463
0.09657091622120745
0.07366902631122597
0.04613824054238385
0.015708419435684483
-0.01570841943568445
-0.04613824054238382
-0.07366902631122609
-0.0965709162212075
-0.11340490030202462
-0.12311323742281707
-0.12508591705751904
-0.11919898848967406
-0.10582234909180856
-0.08579650231312884
-0.060379745756652115
-0.031169107713113296
-3.069778866226257e-17
-3.0697788662262633e-17
-0.031169107713113358
-0.060379745756652135
-0.08579650231312909
-0.10582234909180883
-0.11919898848967429
-0.12508591705751929
-0.12311323742281731
-0.11340490030202484
-0.0965709162212077
-0.0736690263112262
-0.04613824054238392
-0.015708419435684483
0.015708419435684514
0.04613824054238395
0.07366902631122622
0.09657091622120768
0.11340490030202488
0.1231132374228173
0.12508591705751929
0.11919898848967428
0.10582234909180878
0.08579650231312905
0.060379745756652094
0.031169107713113313
-0.0
-0.031169107713113313
-0.060379745756652184
-0.0857965023131291
-0.10582234909180874
-0.11919898848967428
-0.12508591705751929
-0.1231132374228173
-0.11340490030202485
-0.09657091622120764
-0.07366902631122613
-0.04613824054238395
-0.015708419435684514
0.015708419435684483
0.04613824054238392
0.07366902631122624
0.0965709162212077
0.11340490030202484
0.12311323742281731
0.12508591705751929
0.11919898848967429
0.10582234909180877
0.085796502313129
0.06037974575665223
0.031169107713113358
3.0697788662262633e-17
-9.016451102656856e-17
-0.09154885346976555
-0.17734535578289434
-0.25199859716158984
-0.31081783989461204
-0.3501072546390021
-0.3673981429700106
-0.3616040547823612
-0.33308905394604954
-0.28364484283445857
-0.21637818307481754
-0.13551568628929458
-0.04613824054238385
0.04613824054238395
0.13551568628929467
0.21637818307481763
0.2836448428344585
0.33308905394604965
0.3616040547823612
0.3673981429700106
0.35010725463900205
0.31081783989461187
0.25199859716158973
0.17734535578289423
0.09154885346976543
-0.0
-0.09154885346976543
-0.1773453557828945
-0.2519985971615899
-0.31081783989461176
-0.35010725463900205
-0.3673981429700106
-0.3616040547823612
-0.33308905394604954
-0.2836448428344584
-0.21637818307481735
-0.13551568628929467
-0.04613824054238395
0.04613824054238385
0.13551568628929458
0.21637818307481768
0.28364484283445857
0.33308905394604954
0.3616040547823612
0.3673981429700106
0.3501072546390021
0.3108178398946118
0.2519985971615896
0.17734535578289465
0.09154885346976555
9.016451102656856e-17
-1.4396586556119935e-16
-0.14617624806978122
-0.28316770487470266
-0.40236669336437686
-0.49628350270878274
-0.5590169943749476
-0.5866253923638433
-0.5773739594932422
-0.5318439973147941
-0.452896320799659
-0.3454915028125263
-0.2163781830748175
-0.07366902631122607
0.07366902631122622
0.21637818307481763
0.34549150281252644
0.45289632079965897
0.5318439973147943
0.5773739594932421
0.5866253923638433
0.5590169943749476
0.49628350270878246
0.40236669336437664
0.2831677048747025
0.14617624806978102
-0.0
-0.14617624806978102
-0.2831677048747029
-0.4023666933643769
-0.4962835027087823
-0.5590169943749476
-0.5866253923638433
-0.5773739594932421
-0.5318439973147941
-0.4528963207996588
-0.345491502812526
-0.21637818307481763
-0.07366902631122622
0.07366902631122607
0.2163781830748175
0.3454915028125265
0.452896320799659
0.5318439973147941
0.5773739594932422
0.5866253923638433
0.5590169943749476
0.4962835027087824
0.40236669336437647
0.2831677048747031
0.14617624806978122
1.4396586556119935e-16
-1.8872131529320355e-16
-0.1916188514049378
-0.37119758565126343
-0.5274526104218958
-0.6505658478447129
-0.7328016404336241
-0.7689928108981795
-0.7568653348962767
-0.6971812263468518
-0.5936906572928624
-0.4528963207996588
-0.28364484283445834
-0.09657091622120749
0.09657091622120768
0.2836448428344585
0.45289632079965897
0.5936906572928623
0.697181226346852
0.7568653348962766
0.7689928108981795
0.732801640433624
0.6505658478447126
0.5274526104218956
0.37119758565126315
0.19161885140493756
-0.0
-0.19161885140493756
-0.37119758565126376
-0.527452610421896
-0.6505658478447124
-0.732801640433624
-0.7689928108981795
-0.7568653348962766
-0.6971812263468519
-0.5936906572928621
-0.45289632079965836
-0.2836448428344585
-0.09657091622120768
0.09657091622120749
0.28364484283445834
0.4528963207996591
0.5936906572928624
0.6971812263468518
0.7568653348962767
0.7689928108981795
0.7328016404336241
0.6505658478447126
0.5274526104218953
0.37119758565126404
0.1916188514049378
1.8872131529320355e-16
-2.2161871071688906e-16
-0.2250213375814831
-0.4359037569521305
-0.6193967401315997
-0.7639707481467377
-0.8605416643679449
-0.9030415829660576
-0.8888000777517895
-0.8187119948743449
-0.6971812263468521
-0.5318439973147941
-0.33308905394604943
-0.11340490030202466
0.11340490030202488
0.33308905394604965
0.5318439973147943
0.697181226346852
0.8187119948743451
0.8888000777517894
0.9030415829660576
0.8605416643679448
0.7639707481467374
0.6193967401315995
0.43590375695213024
0.2250213375814828
-0.0
-0.2250213375814828
-0.43590375695213085
-0.6193967401315998
-0.763970748146737
-0.8605416643679448
-0.9030415829660576
-0.8888000777517894
-0.818711994874345
-0.6971812263468518
-0.5318439973147936
-0.33308905394604965
-0.11340490030202488
0.11340490030202466
0.33308905394604943
0.5318439973147944
0.6971812263468521
0.8187119948743449
0.8888000777517895
0.9030415829660576
0.8605416643679449
0.7639707481467373
0.6193967401315992
0.43590375695213124
0.2250213375814831
2.2161871071688906e-16
-2.405909874896284e-16
-0.24428490554719354
-0.4732204920618186
-0.6724218946769722
-0.8293725566548318
-0.9342106906791707
-0.9803489312215544
-0.9648882429441257
-0.888800077751789
-0.7568653348962767
-0.577373959493242
-0.36160405478236096
-0.12311323742281706
0.1231132374228173
0.3616040547823612
0.5773739594932421
0.7568653348962766
0.8888000777517894
0.9648882429441256
0.9803489312215544
0.9342106906791706
0.8293725566548314
0.6724218946769719
0.47322049206181827
0.24428490554719323
-0.0
-0.24428490554719323
-0.473220492061819
-0.6724218946769723
-0.8293725566548311
-0.9342106906791706
-0.9803489312215544
-0.9648882429441256
-0.8888000777517892
-0.7568653348962763
-0.5773739594932414
-0.3616040547823612
-0.1231132374228173
0.12311323742281706
0.36160405478236096
0.5773739594932422
0.7568653348962767
0.888800077751789
0.9648882429441257
0.9803489312215544
0.9342106906791707
0.8293725566548313
0.6724218946769716
0.4732204920618193
0.24428490554719354
2.405909874896284e-16
-2.444460476866375e-16
-0.24819915448033658
-0.48080304327203466
-0.6831963085850509
-0.8426618372094059
-0.9491798235084413
-0.9960573506572389
-0.9803489312215545
-0.9030415829660573
-0.7689928108981796
-0.586625392363843
-0.3673981429700104
-0.12508591705751904
0.12508591705751929
0.3673981429700106
0.5866253923638433
0.7689928108981795
0.9030415829660576
0.9803489312215544
0.9960573506572389
0.9491798235084412
0.8426618372094055
0.6831963085850505
0.4808030432720343
0.24819915448033625
-0.0
-0.24819915448033625
-0.48080304327203505
-0.683196308585051
-0.8426618372094051
-0.9491798235084412
-0.9960573506572389
-0.9803489312215544
-0.9030415829660574